          50
 Timestep:          10
           1   4.9605736136436462       0.76831859494554855       0.62666617333889008     
           2   4.8429158329963684        1.5787729458089116E-002   1.2434495240449905     
           3   4.6488824486732483        5.2908310832023209E-005   1.8406227231025696     
           4   4.3815332651138306        7.0668394220395148E-008   2.4087685346603394     
           5   4.0450850129127502        5.0352764284288443E-011   2.9389262199401855     
           6   3.6448431015014648        2.2127473618569801E-014   3.4227356314659119     
           7   3.1871196627616882        6.5259913933266570E-018   3.8525664806365967     
           8   2.6791337132453918        1.3622072028102519E-021   4.2216396331787109     
           9   2.1288965642452240        2.0831183450648420E-025   4.5241352915763855     
          10   1.5450848639011383        2.3862486194320627E-029   4.7552827000617981     
          11  0.93690611422061920        2.0749982288527810E-033   4.9114364385604858     
          12  0.31395249068737030        1.3779807088845509E-037   4.9901336431503296     
          13 -0.31395293772220612        6.9850531474474333E-042   4.9901336431503296     
          14 -0.93690715730190277        6.9850531474474333E-042   4.9114361405372620     
          15  -1.5450851619243622        1.3779807088845509E-037   4.7552824020385742     
          16  -2.1288968622684479        2.0749982288527810E-033   4.5241349935531616     
          17  -2.6791346073150635        2.3862486194320627E-029   4.2216393351554871     
          18  -3.1871199607849121        2.0831183450648420E-025   3.8525661826133728     
          19  -3.6448431015014648        1.3622072028102519E-021   3.4227353334426880     
          20  -4.0450853109359741        6.5259913933266570E-018   2.9389259219169617     
          21  -4.3815335631370544        2.2127473618569801E-014   2.4087677896022797     
          22  -4.6488827466964722        5.0352764284288443E-011   1.8406219780445099     
          23  -4.8429158329963684        7.0668394220395148E-008   1.2434495240449905     
          24  -4.9605736136436462        5.2908310832023209E-005  0.62666602432727814     
          25  -5.0000000000000000        1.5787729458089116E-002  -4.3711388286737929E-007
          26  -4.9605733156204224       0.76831859494554855      -0.62666684389114380     
          27  -4.8429155349731445        1.5787729458089116E-002  -1.2434503436088562     
          28  -4.6488818526268005        5.2908310832023209E-005  -1.8406239151954651     
          29  -4.3815332651138306        7.0668394220395148E-008  -2.4087685346603394     
          30  -4.0450847148895264        5.0352764284288443E-011  -2.9389268159866333     
          31  -3.6448425054550171        2.2127473618569801E-014  -3.4227362275123596     
          32  -3.1871190667152405        6.5259913933266570E-018  -3.8525667786598206     
          33  -2.6791328191757202        1.3622072028102519E-021  -4.2216402292251587     
          34  -2.1288950741291046        2.0831183450648420E-025  -4.5241358876228333     
          35  -1.5450832247734070        2.3862486194320627E-029  -4.7552829980850220     
          36 -0.93690685927867889        2.0749982288527810E-033  -4.9114361405372620     
          37 -0.31395267695188522        1.3779807088845509E-037  -4.9901336431503296     
          38  0.31395278871059418        6.9850531474474333E-042  -4.9901336431503296     
          39  0.93690700829029083        6.9850531474474333E-042  -4.9114361405372620     
          40   1.5450856089591980        1.3779807088845509E-037  -4.7552824020385742     
          41   2.1288973093032837        2.0749982288527810E-033  -4.5241349935531616     
          42   2.6791349053382874        2.3862486194320627E-029  -4.2216390371322632     
          43   3.1871211528778076        2.0831183450648420E-025  -3.8525652885437012     
          44   3.6448442935943604        1.3622072028102519E-021  -3.4227341413497925     
          45   4.0450862050056458        6.5259913933266570E-018  -2.9389247298240662     
          46   4.3815332651138306        2.2127473618569801E-014  -2.4087685346603394     
          47   4.6488833427429199        5.0352764284288443E-011  -1.8406204879283905     
          48   4.8429158329963684        7.0668394220395148E-008  -1.2434490770101547     
          49   4.9605739116668701        5.2908310832023209E-005 -0.62666319310665131     
          50   5.0000000000000000        1.5787729458089116E-002   8.7422776573475858E-007
          50
 Timestep:          20
           1   4.9605736136436462       0.67702990056324286       0.62666617333889008     
           2   4.8429158329963684        6.0654206091814773E-002   1.2434495240449905     
           3   4.6488824486732483        8.2638880762486938E-004   1.8406227231025696     
           4   4.3815332651138306        4.4479864945135730E-006   2.4087685346603394     
           5   4.0450850129127502        1.2770126860091004E-008   2.9389262199401855     
           6   3.6448431015014648        2.2754510860626790E-011   3.4227356314659119     
           7   3.1871196627616882        2.7577236080534633E-014   3.8525664806365967     
           8   2.6791337132453918        2.4165766875278358E-017   4.2216396331787109     
           9   2.1288965642452240        1.5991794033907987E-020   4.5241352915763855     
          10   1.5450848639011383        8.2536997909421007E-024   4.7552827000617981     
          11  0.93690611422061920        3.4053949610754109E-027   4.9114364385604858     
          12  0.31395249068737030        1.1450552461633893E-030   4.9901336431503296     
          13 -0.31395293772220612        3.1869352695971378E-034   4.9901336431503296     
          14 -0.93690715730190277        3.1869352695971378E-034   4.9114361405372620     
          15  -1.5450851619243622        1.1450552461633893E-030   4.7552824020385742     
          16  -2.1288968622684479        3.4053949610754109E-027   4.5241349935531616     
          17  -2.6791346073150635        8.2536997909421007E-024   4.2216393351554871     
          18  -3.1871199607849121        1.5991794033907987E-020   3.8525661826133728     
          19  -3.6448431015014648        2.4165766875278358E-017   3.4227353334426880     
          20  -4.0450853109359741        2.7577236080534633E-014   2.9389259219169617     
          21  -4.3815335631370544        2.2754510860626790E-011   2.4087677896022797     
          22  -4.6488827466964722        1.2770126860091004E-008   1.8406219780445099     
          23  -4.8429158329963684        4.4479864945135730E-006   1.2434495240449905     
          24  -4.9605736136436462        8.2638880762486938E-004  0.62666602432727814     
          25  -5.0000000000000000        6.0654206091814773E-002  -4.3711388286737929E-007
          26  -4.9605733156204224       0.67702990056324286      -0.62666684389114380     
          27  -4.8429155349731445        6.0654206091814773E-002  -1.2434503436088562     
          28  -4.6488818526268005        8.2638880762486938E-004  -1.8406239151954651     
          29  -4.3815332651138306        4.4479864945135730E-006  -2.4087685346603394     
          30  -4.0450847148895264        1.2770126860091004E-008  -2.9389268159866333     
          31  -3.6448425054550171        2.2754510860626790E-011  -3.4227362275123596     
          32  -3.1871190667152405        2.7577236080534633E-014  -3.8525667786598206     
          33  -2.6791328191757202        2.4165766875278358E-017  -4.2216402292251587     
          34  -2.1288950741291046        1.5991794033907987E-020  -4.5241358876228333     
          35  -1.5450832247734070        8.2536997909421007E-024  -4.7552829980850220     
          36 -0.93690685927867889        3.4053949610754109E-027  -4.9114361405372620     
          37 -0.31395267695188522        1.1450552461633893E-030  -4.9901336431503296     
          38  0.31395278871059418        3.1869352695971378E-034  -4.9901336431503296     
          39  0.93690700829029083        3.1869352695971378E-034  -4.9114361405372620     
          40   1.5450856089591980        1.1450552461633893E-030  -4.7552824020385742     
          41   2.1288973093032837        3.4053949610754109E-027  -4.5241349935531616     
          42   2.6791349053382874        8.2536997909421007E-024  -4.2216390371322632     
          43   3.1871211528778076        1.5991794033907987E-020  -3.8525652885437012     
          44   3.6448442935943604        2.4165766875278358E-017  -3.4227341413497925     
          45   4.0450862050056458        2.7577236080534633E-014  -2.9389247298240662     
          46   4.3815332651138306        2.2754510860626790E-011  -2.4087685346603394     
          47   4.6488833427429199        1.2770126860091004E-008  -1.8406204879283905     
          48   4.8429158329963684        4.4479864945135730E-006  -1.2434490770101547     
          49   4.9605739116668701        8.2638880762486938E-004 -0.62666319310665131     
          50   5.0000000000000000        6.0654206091814773E-002   8.7422776573475858E-007
          50
 Timestep:          30
           1   4.9605736136436462       0.53690622017675138       0.62666617333889008     
           2   4.8429158329963684       0.12747920709672833        1.2434495240449905     
           3   4.6488824486732483        4.0181344245051338E-003   1.8406227231025696     
           4   4.3815332651138306        4.9232911197851607E-005   2.4087685346603394     
           5   4.0450850129127502        3.2014639339748420E-007   2.9389262199401855     
           6   3.6448431015014648        1.2897237988774935E-009   3.4227356314659119     
           7   3.1871196627616882        3.5334076579308274E-012   3.8525664806365967     
           8   2.6791337132453918        7.0073664520468850E-015   4.2216396331787109     
           9   2.1288965642452240        1.0519521657362637E-017   4.5241352915763855     
          10   1.5450848639011383        1.2361783699532538E-020   4.7552827000617981     
          11  0.93690611422061920        1.1671096543652595E-023   4.9114364385604858     
          12  0.31395249068737030        9.0382808320044179E-027   4.9901336431503296     
          13 -0.31395293772220612        5.8418492492264880E-030   4.9901336431503296     
          14 -0.93690715730190277        5.8418492492264880E-030   4.9114361405372620     
          15  -1.5450851619243622        9.0382808320044179E-027   4.7552824020385742     
          16  -2.1288968622684479        1.1671096543652595E-023   4.5241349935531616     
          17  -2.6791346073150635        1.2361783699532538E-020   4.2216393351554871     
          18  -3.1871199607849121        1.0519521657362637E-017   3.8525661826133728     
          19  -3.6448431015014648        7.0073664520468850E-015   3.4227353334426880     
          20  -4.0450853109359741        3.5334076579308274E-012   2.9389259219169617     
          21  -4.3815335631370544        1.2897237988774935E-009   2.4087677896022797     
          22  -4.6488827466964722        3.2014639339748420E-007   1.8406219780445099     
          23  -4.8429158329963684        4.9232911197851607E-005   1.2434495240449905     
          24  -4.9605736136436462        4.0181344245051338E-003  0.62666602432727814     
          25  -5.0000000000000000       0.12747920709672833       -4.3711388286737929E-007
          26  -4.9605733156204224       0.53690622017675138      -0.62666684389114380     
          27  -4.8429155349731445       0.12747920709672833       -1.2434503436088562     
          28  -4.6488818526268005        4.0181344245051338E-003  -1.8406239151954651     
          29  -4.3815332651138306        4.9232911197851607E-005  -2.4087685346603394     
          30  -4.0450847148895264        3.2014639339748420E-007  -2.9389268159866333     
          31  -3.6448425054550171        1.2897237988774935E-009  -3.4227362275123596     
          32  -3.1871190667152405        3.5334076579308274E-012  -3.8525667786598206     
          33  -2.6791328191757202        7.0073664520468850E-015  -4.2216402292251587     
          34  -2.1288950741291046        1.0519521657362637E-017  -4.5241358876228333     
          35  -1.5450832247734070        1.2361783699532538E-020  -4.7552829980850220     
          36 -0.93690685927867889        1.1671096543652595E-023  -4.9114361405372620     
          37 -0.31395267695188522        9.0382808320044179E-027  -4.9901336431503296     
          38  0.31395278871059418        5.8418492492264880E-030  -4.9901336431503296     
          39  0.93690700829029083        5.8418492492264880E-030  -4.9114361405372620     
          40   1.5450856089591980        9.0382808320044179E-027  -4.7552824020385742     
          41   2.1288973093032837        1.1671096543652595E-023  -4.5241349935531616     
          42   2.6791349053382874        1.2361783699532538E-020  -4.2216390371322632     
          43   3.1871211528778076        1.0519521657362637E-017  -3.8525652885437012     
          44   3.6448442935943604        7.0073664520468850E-015  -3.4227341413497925     
          45   4.0450862050056458        3.5334076579308274E-012  -2.9389247298240662     
          46   4.3815332651138306        1.2897237988774935E-009  -2.4087685346603394     
          47   4.6488833427429199        3.2014639339748420E-007  -1.8406204879283905     
          48   4.8429158329963684        4.9232911197851607E-005  -1.2434490770101547     
          49   4.9605739116668701        4.0181344245051338E-003 -0.62666319310665131     
          50   5.0000000000000000       0.12747920709672833        8.7422776573475858E-007
          50
 Timestep:          40
           1   4.9605736136436462       0.36432176492977741       0.62666617333889008     
           2   4.8429158329963684       0.20557419048319484        1.2434495240449905     
           3   4.6488824486732483        1.1996130357605814E-002   1.8406227231025696     
           4   4.3815332651138306        2.6568073924674478E-004   2.4087685346603394     
           5   4.0450850129127502        3.0994772436706196E-006   2.9389262199401855     
           6   3.6448431015014648        2.2328676261497425E-008   3.4227356314659119     
           7   3.1871196627616882        1.0922105190858664E-010   3.8525664806365967     
           8   2.6791337132453918        3.8647230515361515E-013   4.2216396331787109     
           9   2.1288965642452240        1.0350796299695645E-015   4.5241352915763855     
          10   1.5450848639011383        2.1709351727723773E-018   4.7552827000617981     
          11  0.93690611422061920        3.6612802303345108E-021   4.9114364385604858     
          12  0.31395249068737030        5.0713289411177925E-024   4.9901336431503296     
          13 -0.31395293772220612        5.8754870923516838E-027   4.9901336431503296     
          14 -0.93690715730190277        5.8754870923516838E-027   4.9114361405372620     
          15  -1.5450851619243622        5.0713289411177925E-024   4.7552824020385742     
          16  -2.1288968622684479        3.6612802303345108E-021   4.5241349935531616     
          17  -2.6791346073150635        2.1709351727723773E-018   4.2216393351554871     
          18  -3.1871199607849121        1.0350796299695645E-015   3.8525661826133728     
          19  -3.6448431015014648        3.8647230515361515E-013   3.4227353334426880     
          20  -4.0450853109359741        1.0922105190858664E-010   2.9389259219169617     
          21  -4.3815335631370544        2.2328676261497425E-008   2.4087677896022797     
          22  -4.6488827466964722        3.0994772436706196E-006   1.8406219780445099     
          23  -4.8429158329963684        2.6568073924674478E-004   1.2434495240449905     
          24  -4.9605736136436462        1.1996130357605814E-002  0.62666602432727814     
          25  -5.0000000000000000       0.20557419048319484       -4.3711388286737929E-007
          26  -4.9605733156204224       0.36432176492977741      -0.62666684389114380     
          27  -4.8429155349731445       0.20557419048319484       -1.2434503436088562     
          28  -4.6488818526268005        1.1996130357605814E-002  -1.8406239151954651     
          29  -4.3815332651138306        2.6568073924674478E-004  -2.4087685346603394     
          30  -4.0450847148895264        3.0994772436706196E-006  -2.9389268159866333     
          31  -3.6448425054550171        2.2328676261497425E-008  -3.4227362275123596     
          32  -3.1871190667152405        1.0922105190858664E-010  -3.8525667786598206     
          33  -2.6791328191757202        3.8647230515361515E-013  -4.2216402292251587     
          34  -2.1288950741291046        1.0350796299695645E-015  -4.5241358876228333     
          35  -1.5450832247734070        2.1709351727723773E-018  -4.7552829980850220     
          36 -0.93690685927867889        3.6612802303345108E-021  -4.9114361405372620     
          37 -0.31395267695188522        5.0713289411177925E-024  -4.9901336431503296     
          38  0.31395278871059418        5.8754870923516838E-027  -4.9901336431503296     
          39  0.93690700829029083        5.8754870923516838E-027  -4.9114361405372620     
          40   1.5450856089591980        5.0713289411177925E-024  -4.7552824020385742     
          41   2.1288973093032837        3.6612802303345108E-021  -4.5241349935531616     
          42   2.6791349053382874        2.1709351727723773E-018  -4.2216390371322632     
          43   3.1871211528778076        1.0350796299695645E-015  -3.8525652885437012     
          44   3.6448442935943604        3.8647230515361515E-013  -3.4227341413497925     
          45   4.0450862050056458        1.0922105190858664E-010  -2.9389247298240662     
          46   4.3815332651138306        2.2328676261497425E-008  -2.4087685346603394     
          47   4.6488833427429199        3.0994772436706196E-006  -1.8406204879283905     
          48   4.8429158329963684        2.6568073924674478E-004  -1.2434490770101547     
          49   4.9605739116668701        1.1996130357605814E-002 -0.62666319310665131     
          50   5.0000000000000000       0.20557419048319484        8.7422776573475858E-007
          50
 Timestep:          50
           1   4.9605736136436462       0.17911265764634873       0.62666617333889008     
           2   4.8429158329963684       0.28226721124993637        1.2434495240449905     
           3   4.6488824486732483        2.7196576524220119E-002   1.8406227231025696     
           4   4.3815332651138306        9.6194304362490809E-004   2.4087685346603394     
           5   4.0450850129127502        1.7743540162461143E-005   2.9389262199401855     
           6   3.6448431015014648        2.0122472856866467E-007   3.4227356314659119     
           7   3.1871196627616882        1.5460003790946139E-009   3.8525664806365967     
           8   2.6791337132453918        8.5813766784426240E-012   4.2216396331787109     
           9   2.1288965642452240        3.6028176316011821E-014   4.5241352915763855     
          10   1.5450848639011383        1.1841336090609374E-016   4.7552827000617981     
          11  0.93690611422061920        3.1293123494218307E-019   4.9114364385604858     
          12  0.31395249068737030        6.7932697897265527E-022   4.9901336431503296     
          13 -0.31395293772220612        1.2346865142475762E-024   4.9901336431503296     
          14 -0.93690715730190277        1.2346865142475762E-024   4.9114361405372620     
          15  -1.5450851619243622        6.7932697897265527E-022   4.7552824020385742     
          16  -2.1288968622684479        3.1293123494218307E-019   4.5241349935531616     
          17  -2.6791346073150635        1.1841336090609374E-016   4.2216393351554871     
          18  -3.1871199607849121        3.6028176316011821E-014   3.8525661826133728     
          19  -3.6448431015014648        8.5813766784426240E-012   3.4227353334426880     
          20  -4.0450853109359741        1.5460003790946139E-009   2.9389259219169617     
          21  -4.3815335631370544        2.0122472856866467E-007   2.4087677896022797     
          22  -4.6488827466964722        1.7743540162461143E-005   1.8406219780445099     
          23  -4.8429158329963684        9.6194304362490809E-004   1.2434495240449905     
          24  -4.9605736136436462        2.7196576524220119E-002  0.62666602432727814     
          25  -5.0000000000000000       0.28226721124993637       -4.3711388286737929E-007
          26  -4.9605733156204224       0.17911265764634873      -0.62666684389114380     
          27  -4.8429155349731445       0.28226721124993637       -1.2434503436088562     
          28  -4.6488818526268005        2.7196576524220119E-002  -1.8406239151954651     
          29  -4.3815332651138306        9.6194304362490809E-004  -2.4087685346603394     
          30  -4.0450847148895264        1.7743540162461143E-005  -2.9389268159866333     
          31  -3.6448425054550171        2.0122472856866467E-007  -3.4227362275123596     
          32  -3.1871190667152405        1.5460003790946139E-009  -3.8525667786598206     
          33  -2.6791328191757202        8.5813766784426240E-012  -4.2216402292251587     
          34  -2.1288950741291046        3.6028176316011821E-014  -4.5241358876228333     
          35  -1.5450832247734070        1.1841336090609374E-016  -4.7552829980850220     
          36 -0.93690685927867889        3.1293123494218307E-019  -4.9114361405372620     
          37 -0.31395267695188522        6.7932697897265527E-022  -4.9901336431503296     
          38  0.31395278871059418        1.2346865142475762E-024  -4.9901336431503296     
          39  0.93690700829029083        1.2346865142475762E-024  -4.9114361405372620     
          40   1.5450856089591980        6.7932697897265527E-022  -4.7552824020385742     
          41   2.1288973093032837        3.1293123494218307E-019  -4.5241349935531616     
          42   2.6791349053382874        1.1841336090609374E-016  -4.2216390371322632     
          43   3.1871211528778076        3.6028176316011821E-014  -3.8525652885437012     
          44   3.6448442935943604        8.5813766784426240E-012  -3.4227341413497925     
          45   4.0450862050056458        1.5460003790946139E-009  -2.9389247298240662     
          46   4.3815332651138306        2.0122472856866467E-007  -2.4087685346603394     
          47   4.6488833427429199        1.7743540162461143E-005  -1.8406204879283905     
          48   4.8429158329963684        9.6194304362490809E-004  -1.2434490770101547     
          49   4.9605739116668701        2.7196576524220119E-002 -0.62666319310665131     
          50   5.0000000000000000       0.28226721124993637        8.7422776573475858E-007
          50
 Timestep:          60
           1   4.9605736136436462        2.0061800672843341E-003  0.62666617333889008     
           2   4.8429158329963684       0.34478402286285320        1.2434495240449905     
           3   4.6488824486732483        5.1445564091200068E-002   1.8406227231025696     
           4   4.3815332651138306        2.6935142580105224E-003   2.4087685346603394     
           5   4.0450850129127502        7.2604637049089558E-005   2.9389262199401855     
           6   3.6448431015014648        1.1966468565784319E-006   3.4227356314659119     
           7   3.1871196627616882        1.3323209730667427E-008   3.8525664806365967     
           8   2.6791337132453918        1.0699110939126638E-010   4.2216396331787109     
           9   2.1288965642452240        6.4920180982820555E-013   4.5241352915763855     
          10   1.5450848639011383        3.0818227910306503E-015   4.7552827000617981     
          11  0.93690611422061920        1.1758727309637846E-017   4.9114364385604858     
          12  0.31395249068737030        3.6847868381402451E-020   4.9901336431503296     
          13 -0.31395293772220612        9.6736965585505972E-023   4.9901336431503296     
          14 -0.93690715730190277        9.6736965585505972E-023   4.9114361405372620     
          15  -1.5450851619243622        3.6847868381402451E-020   4.7552824020385742     
          16  -2.1288968622684479        1.1758727309637846E-017   4.5241349935531616     
          17  -2.6791346073150635        3.0818227910306503E-015   4.2216393351554871     
          18  -3.1871199607849121        6.4920180982820555E-013   3.8525661826133728     
          19  -3.6448431015014648        1.0699110939126638E-010   3.4227353334426880     
          20  -4.0450853109359741        1.3323209730667427E-008   2.9389259219169617     
          21  -4.3815335631370544        1.1966468565784319E-006   2.4087677896022797     
          22  -4.6488827466964722        7.2604637049089558E-005   1.8406219780445099     
          23  -4.8429158329963684        2.6935142580105224E-003   1.2434495240449905     
          24  -4.9605736136436462        5.1445564091200068E-002  0.62666602432727814     
          25  -5.0000000000000000       0.34478402286285320       -4.3711388286737929E-007
          26  -4.9605733156204224        2.0061800672843341E-003 -0.62666684389114380     
          27  -4.8429155349731445       0.34478402286285320       -1.2434503436088562     
          28  -4.6488818526268005        5.1445564091200068E-002  -1.8406239151954651     
          29  -4.3815332651138306        2.6935142580105224E-003  -2.4087685346603394     
          30  -4.0450847148895264        7.2604637049089558E-005  -2.9389268159866333     
          31  -3.6448425054550171        1.1966468565784319E-006  -3.4227362275123596     
          32  -3.1871190667152405        1.3323209730667427E-008  -3.8525667786598206     
          33  -2.6791328191757202        1.0699110939126638E-010  -4.2216402292251587     
          34  -2.1288950741291046        6.4920180982820555E-013  -4.5241358876228333     
          35  -1.5450832247734070        3.0818227910306503E-015  -4.7552829980850220     
          36 -0.93690685927867889        1.1758727309637846E-017  -4.9114361405372620     
          37 -0.31395267695188522        3.6847868381402451E-020  -4.9901336431503296     
          38  0.31395278871059418        9.6736965585505972E-023  -4.9901336431503296     
          39  0.93690700829029083        9.6736965585505972E-023  -4.9114361405372620     
          40   1.5450856089591980        3.6847868381402451E-020  -4.7552824020385742     
          41   2.1288973093032837        1.1758727309637846E-017  -4.5241349935531616     
          42   2.6791349053382874        3.0818227910306503E-015  -4.2216390371322632     
          43   3.1871211528778076        6.4920180982820555E-013  -3.8525652885437012     
          44   3.6448442935943604        1.0699110939126638E-010  -3.4227341413497925     
          45   4.0450862050056458        1.3323209730667427E-008  -2.9389247298240662     
          46   4.3815332651138306        1.1966468565784319E-006  -2.4087685346603394     
          47   4.6488833427429199        7.2604637049089558E-005  -1.8406204879283905     
          48   4.8429158329963684        2.6935142580105224E-003  -1.2434490770101547     
          49   4.9605739116668701        5.1445564091200068E-002 -0.62666319310665131     
          50   5.0000000000000000       0.34478402286285320        8.7422776573475858E-007
          50
 Timestep:          70
           1   4.9605736136436462      -0.14802879971043154       0.62666617333889008     
           2   4.8429158329963684       0.38214839331673273        1.2434495240449905     
           3   4.6488824486732483        8.5334919824437763E-002   1.8406227231025696     
           4   4.3815332651138306        6.2907422656508123E-003   2.4087685346603394     
           5   4.0450850129127502        2.3493926364061450E-004   2.9389262199401855     
           6   3.6448431015014648        5.3288774296879255E-006   3.4227356314659119     
           7   3.1871196627616882        8.1366062940298582E-008   3.8525664806365967     
           8   2.6791337132453918        8.9426076886352238E-010   4.2216396331787109     
           9   2.1288965642452240        7.4169164531319310E-012   4.5241352915763855     
          10   1.5450848639011383        4.8085465875543241E-014   4.7552827000617981     
          11  0.93690611422061920        2.5042922201877301E-016   4.9114364385604858     
          12  0.31395249068737030        1.0707657070834797E-018   4.9901336431503296     
          13 -0.31395293772220612        3.8377993045591787E-021   4.9901336431503296     
          14 -0.93690715730190277        3.8377993045591787E-021   4.9114361405372620     
          15  -1.5450851619243622        1.0707657070834797E-018   4.7552824020385742     
          16  -2.1288968622684479        2.5042922201877301E-016   4.5241349935531616     
          17  -2.6791346073150635        4.8085465875543241E-014   4.2216393351554871     
          18  -3.1871199607849121        7.4169164531319310E-012   3.8525661826133728     
          19  -3.6448431015014648        8.9426076886352238E-010   3.4227353334426880     
          20  -4.0450853109359741        8.1366062940298582E-008   2.9389259219169617     
          21  -4.3815335631370544        5.3288774296879255E-006   2.4087677896022797     
          22  -4.6488827466964722        2.3493926364061450E-004   1.8406219780445099     
          23  -4.8429158329963684        6.2907422656508123E-003   1.2434495240449905     
          24  -4.9605736136436462        8.5334919824437763E-002  0.62666602432727814     
          25  -5.0000000000000000       0.38214839331673273       -4.3711388286737929E-007
          26  -4.9605733156204224      -0.14802879971043154      -0.62666684389114380     